/*--------------------------------*- C++ -*----------------------------------*\
| =========                 |                                                 |
| \\      /  F ield         | OpenFOAM: The Open Source CFD Toolbox           |
|  \\    /   O peration     | Version:  v2412                                 |
|   \\  /    A nd           | Website:  www.openfoam.com                      |
|    \\/     M anipulation  |                                                 |
\*---------------------------------------------------------------------------*/
FoamFile
{
    version     2.0;
    format      ascii;
    class       volVectorField;
    object      U;
}
// * * * * * * * * * * * * * * * * * * * * * * * * * * * * * * * * * * * * * //

magU            237.4; 
aoa             10;             // alpha (Angle of Attack) in degrees
sideslip        10;              // beta (Sideslip Angle) in degrees

// 3D Vector Decomposition Calculations 
degToRad        #eval{ 3.14159265 / 180.0 };
Ux              #eval{ $magU * cos($aoa * $degToRad) * cos($sideslip * $degToRad) };
Uy              #eval{ $magU * sin($sideslip * $degToRad) };
Uz              #eval{ $magU * sin($aoa * $degToRad) * cos($sideslip * $degToRad) };
// ----------------------------------

dimensions      [0 1 -1 0 0 0 0];
internalField   uniform ($Ux $Uy $Uz);
boundaryField
{
    inlet  { type fixedValue; value uniform ($Ux $Uy $Uz); }
    outlet { type zeroGradient; }
    walls  { type slip; }
    Mars   { type noSlip; } 
}

// ************************************************************************* //